CRYSTAL
PRIMVEC 1
      4.0000000000       0.0000000000       0.0000000000
      0.0000000000       4.0000000000       0.0000000000
      0.0000000000       0.0000000000       4.0000000000
PRIMCOORD 1
1 1
6        0.0000000000       0.0000000000       0.0000000000
